<?xml version="1.0" encoding="UTF-8"?>

<!-- generated on 02/14/24 23:20:37 by Eclipse SUMO GUI Version 1.7.0
<configuration xmlns:xsi="http://www.w3.org/2001/XMLSchema-instance" xsi:noNamespaceSchemaLocation="http://sumo.dlr.de/xsd/sumoConfiguration.xsd">

    <input>
        <net-file value="C:\Users\29700\Downloads\Synchro2SUMO\CaseStudy\Dearborn\Dearborn_AM_signal.net.xml"/>
        <route-files value="C:\Users\29700\Downloads\Synchro2SUMO\CaseStudy\Dearborn\route.rou.xml"/>
        <additional-files value="C:\Users\29700\Downloads\Synchro2SUMO\CaseStudy\Dearborn\signal_additional.add3.xml"/>
    </input>

    <time>
        <begin value="0"/>
        <end value="1600"/>
        <step-length value="0.1"/>
    </time>

    <gui_only>
        <tracker-interval value="0.1"/>
    </gui_only>

</configuration>
-->

<detector xmlns:xsi="http://www.w3.org/2001/XMLSchema-instance" xsi:noNamespaceSchemaLocation="http://sumo.dlr.de/xsd/det_e1_file.xsd">
</detector>
